# vtk DataFile Version 3.0
vtk output
ASCII
DATASET POLYDATA
POINTS 2500 float
128.517 167.444 198.357 131.017 147.813 203.667 149.369 144.514 209.58 
110.276 170.026 140.494 95.8145 139.103 101.097 100.058 173.887 148.253 
127.716 153.336 212.064 141.149 137.559 185.088 96.8129 150.03 89.9383 
146.208 128.086 219.513 143.217 165.672 268.196 149.884 152.289 242.423 
158.997 134.479 224.526 109.961 155.2 119.932 133.309 154.676 171.639 
105.628 138.457 84.2973 150.576 121.711 200.158 124.705 148.258 148.187 
104.917 138.648 92.3778 162.103 105.642 213.062 165.468 113.78 254.448 
137.778 132.491 191.308 95.298 166.234 119.506 146.868 142.314 215.241 
150.922 133.115 235.043 105.601 166.891 123.63 120.543 125.595 195.524 
122.151 125.301 194.712 137.738 152.596 188.543 135.103 160.035 191.751 
105.658 152.836 104.472 104.774 122.591 68.4612 134.116 139.328 216.233 
132.108 166.901 235.369 157.765 136.028 251.922 134.028 163.84 228.431 
104.134 119.461 67.0379 144.484 131.853 223.278 100.061 165.714 160.531 
105.026 147.007 123.643 154.801 141.833 226.557 105.193 160.928 113.605 
144.769 161.001 241.435 127.792 159.54 160.527 105.045 149.271 145.749 
100.744 171.483 156.667 134.107 162.081 224.695 133.498 164.239 200.66 
140.865 143.853 213.805 98.1436 158.087 142.467 149.375 123.102 222.101 
113.436 170.879 151.264 146.378 139.541 206.279 146.613 125.071 197.315 
130.475 132.879 161.134 102.141 165.065 116.956 160.91 132.991 234.726 
153.247 115.531 220.872 160.663 122.7 240.151 126.594 128.735 147.685 
139.281 147.076 204.347 113.452 171.2 152.313 132.776 168.594 223.39 
93.6023 164.417 133.429 132.737 138.549 212.866 151.736 117.094 217.885 
132.831 163.302 190.379 123.086 145.503 146.706 147.644 127.247 195.881 
140.697 142.228 224.278 141.87 160.345 225.484 125.755 167.712 177.617 
116.013 134.984 181.875 130.833 151.881 201.694 145.698 153.849 220.657 
146.894 124.824 213.161 146.994 147.627 208.067 161.402 108.936 211.521 
160.221 111.891 254.497 137.8 166.775 250.152 109.076 151.958 166.331 
94.6356 147.551 124.821 136.121 163.803 212.841 105.009 172.799 165.318 
98.6149 132.068 90.4212 145.123 156.174 252.055 157.582 138.397 230.908 
116.816 168.671 153.574 148.504 129.214 196.375 145.922 136.093 219.18 
121.575 126.249 145.371 137.459 156.944 194.783 152.836 135.878 244.146 
98.1763 141.994 116.331 148.125 134.425 220.365 114.694 140.483 167.999 
146.788 154.771 251.777 160.08 135.775 247.528 129.05 142.098 153.987 
153.796 116.696 226.694 105.104 142.388 95.774 102.841 126.697 79.5958 
95.9327 128.561 78.261 145.9 136.411 194.496 135.549 135.37 198.575 
138.167 160.087 229.252 131.277 149.229 204.536 110.768 150.472 134.465 
133.481 133.739 189.497 165.688 111.406 253.353 129.472 168.787 254.767 
115.027 132.767 188.219 93.7501 140.881 112.367 150.016 134.694 235.36 
130.581 171.063 233.736 94.9243 171.083 130.141 153.726 125.519 239.851 
118.018 142.677 196.755 146.152 132.962 207.574 106.443 170.547 172.404 
128.521 165.843 178.629 153.476 145.578 244.585 148.093 120.206 204.885 
122.043 144.743 205.033 131.842 172.765 247.259 134.983 169.713 233.268 
103.348 117.946 67.4999 153.116 119.019 231.477 102.431 133.152 91.3862 
100.245 173.133 150.986 108.858 174.961 161.41 158.62 105.51 217.858 
119.023 133.485 147.027 104.468 171.47 166.627 94.6015 142.673 118.494 
132.383 167.265 216.109 147.765 121.308 207.681 154.884 120.605 207.234 
114.456 169.064 185.995 109.537 151.515 122.864 125.946 159.965 157.218 
168.091 108.27 260.542 152.78 144.943 228.61 107.123 166.264 177.933 
144.219 137.34 190.695 104.918 128.379 72.4437 116.713 137.386 152.355 
160.062 116.775 267.373 136.225 159.005 194.529 167.071 110.279 268.7 
152.434 127.883 222.538 122.027 164.345 219.526 105.091 127.998 79.4934 
96.6272 124.418 69.4216 136.189 172.949 255.854 155.937 113.73 223.67 
108.947 167.471 130.594 92.6609 146.913 118.261 125.57 167.591 211.271 
157.546 121.431 231.94 122.512 131.189 200.783 132.295 134.23 192.609 
132.443 138.5 212.241 127.319 138.758 151.14 134.789 134.251 193.111 
115.726 133.558 187.258 104.921 138.535 92.2194 110.597 146.417 149.234 
92.4665 167.986 127.493 155.994 121.091 222.653 128.838 161.727 167.342 
149.143 151.142 232.85 147.142 131.892 207.158 127.972 132.14 194.743 
114.766 168.027 188.338 105.418 130.585 75.2398 145.929 165.67 254.811 
124.431 156.918 192.118 147.533 160.841 262.912 100.333 162.946 111.234 
118.755 146.486 196.369 112.218 163.871 133.442 118.034 125.442 147.739 
119.021 141.297 201.663 154.732 128.065 246.741 144.199 161.049 239.691 
115.965 135.045 173.988 108.999 173.292 149.212 95.5738 156.357 129.09 
134.542 169.634 231.96 153.984 129.026 210.04 136.87 148.006 208.071 
123.533 168.643 244.782 113.168 146.44 172.526 116.797 137.408 154.723 
141.427 159.737 220.301 114.53 131.869 173.532 94.6179 142.993 119.107 
154.216 144.633 239.504 115.033 149.953 181.594 155.296 133.636 219.744 
139.775 171.898 259.633 106.666 175.075 158.936 137.944 150.972 187.182 
139.815 164.196 247.641 116.192 135.476 155.375 165.992 108.206 271.936 
123.256 145.752 206.523 105.156 137.224 89.4924 166.896 110.989 265.62 
162.612 111.477 274.011 136.12 159.948 224.453 113.649 172.494 177.299 
139.841 157.708 229.168 101.93 156.204 99.8272 111.054 158.271 124.953 
137.626 133.74 198.098 106.95 170.853 135.368 123.687 166.215 239.46 
133.96 142.559 168.881 126.562 124.591 180.491 150.654 117.1 210.598 
143.837 169.703 261.569 117.692 127.13 195.682 136.273 142.993 210.782 
134.333 153.706 216.457 94.9718 170.494 142.224 118.022 137.025 171.07 
117.018 171.669 177.696 109.967 156.583 120.147 123.13 126.904 198.1 
143.917 142.272 194.439 147.136 131.894 228.869 95.9488 136.939 97.0758 
102.088 171.519 160.323 133.177 141.208 166.487 149.282 135.7 222.532 
93.2304 151.28 98.5517 129.883 127.453 182.332 106.165 170.642 171.728 
125.669 124.94 160.615 102.214 159.051 159.31 112.074 146.994 168.769 
121.137 144.712 145.979 154.319 134.457 217.384 121.457 160.822 209.749 
129.891 156.268 161.385 122.529 167.363 225.213 115.238 142.503 181.089 
140.075 139.749 223.673 134.892 153.646 178.958 131.07 156.058 164.908 
121.869 157.52 185.626 127.611 163.386 167.724 142.259 133.383 220.218 
135.136 166.719 221.196 115.028 131.161 154.616 102.686 148.645 138.979 
143.044 133.814 188.717 112.967 155.848 186.883 97.6324 158.173 101.819 
116.809 130.121 148.406 92.986 146.859 100.117 146.246 153.389 221.881 
139.229 168.987 243.294 150.581 125.337 231.461 136.942 145.829 177.076 
137.756 143.139 221.561 148.452 135.525 207.588 139.624 134.591 214.319 
140.044 137.164 222.141 161.02 108.878 210.949 110.035 147.096 145.521 
104.186 148.04 137.709 95.1742 130.416 76.7374 150.226 138.302 222.107 
157.971 113.987 245.088 137.128 150.522 183.36 164.983 118.423 254.305 
162.194 109.417 216.645 97.5496 140.051 112.349 125.71 124.726 164.368 
95.0278 133.072 84.4634 117.171 134.99 186.426 126.74 169.538 225.438 
133.145 161.629 222.463 162.546 127.337 240.523 120.919 141.955 204.839 
119.936 168.971 163.188 144.786 144.237 211.977 100.475 150.811 90.9897 
96.9538 165.237 148.336 144.256 157.206 251.953 94.2808 170.263 140.459 
134.513 143.841 200.208 107.05 159.922 175.226 147.028 139.542 199.66 
160.58 108.728 250.654 137.546 160.384 205.559 161.838 108.798 245.882 
102.307 117.827 65.1997 138.948 159.98 231.35 166.201 113.232 257.268 
128.694 138.809 209.343 130.638 129.972 159.618 130.998 130.418 177.741 
104.436 133.546 88.0656 139.454 147.619 207.372 132.679 150.113 197.571 
161.363 103.341 264.73 166.272 112.627 265.149 108.987 164.973 126.022 
92.1516 150.595 108.586 133.781 151.109 216.266 160.117 133.447 228.704 
168.318 106.449 259.939 154.128 129.625 245.354 145.851 123.756 204.338 
114.84 149.407 180.481 99.9259 162.507 157.397 129.961 135.264 162.08 
140.015 159.086 232.548 103.681 122.423 67.0895 162.719 102.82 266.444 
116.539 150.615 189.984 148.838 150.896 228.453 165.351 109.31 250.402 
137.172 157.415 222.35 100.723 174.014 149.561 119.563 149.068 144.398 
145.677 152.798 243.298 93.0186 142.467 104.564 114.968 132.186 192.166 
115.134 131.486 153.913 92.1981 156.027 111.328 145.378 143.135 209.339 
102.143 136.87 98.0182 156.248 120.222 220.428 110.06 163.664 184.759 
99.8326 154.514 95.8632 104.211 157.089 104.767 93.8194 144.22 88.6142 
143.87 133.792 189.674 110.928 165.809 185.357 142.505 159.582 247.822 
120.042 162.151 205.919 136.274 144.39 211.236 96.3006 152.927 129.86 
101.769 164.567 166.055 123.227 142.4 207.883 113.706 151.119 178.684 
111.064 156.524 124.851 141.12 161.219 224.659 139.921 147.748 189.153 
121.794 168.084 165.221 142.073 164.217 263.063 104.723 173.727 142.675 
138.623 164.331 225.253 97.9257 162.806 149.382 95.7136 132.541 86.7739 
117.908 140.197 199.409 113.201 152.737 180.486 102.401 172.314 159.373 
152.296 114.32 206.884 134.879 162.419 199.627 158.732 118.136 232.349 
97.9223 157.603 140.997 151.902 139.957 245.639 93.7319 145.959 90.028 
126.724 167.229 246.174 104.948 148.982 144.042 123.38 125.197 178.826 
98.1245 141.85 116.134 111.838 173.011 175.192 131.006 131.465 174.853 
143.898 153.974 235.335 96.8422 150.022 89.9107 151.175 147.566 230.626 
139.253 140.236 210.719 99.8372 162.106 156.472 136.291 145.086 210.939 
148.086 133.8 207.86 140.449 165.253 237.59 127.746 125.329 178.398 
110.479 151.394 130.429 114.15 142.231 172.391 97.1354 147.955 87.2134 
125.695 156.276 191.412 138.662 135.244 213.269 163.139 116.879 247.561 
115.64 158.446 196.48 132.83 145.412 204.627 145.039 155.072 248.166 
110.883 146.877 162.565 156.168 118.88 241.56 137.845 135.851 213.868 
145.773 152.421 216.518 114.775 149.172 142.086 104.9 150.036 148.297 
164.904 101.52 219.619 153.042 135.064 225.205 147.77 150.686 220.308 
104.212 166.436 171.442 155.013 123.91 242.75 104.148 144.933 117.052 
[...]
POINT_DATA 2500
VECTORS MetaImage float
0.474216 -0.202572 1.61502 1.10385 -0.815529 2.27115 -0.216766 0.730596 0.545133 
1.92811 -0.715594 2.84044 -0.482035 0.52851 0.624674 -0.049654 -1.1235 3.28485 
1.19946 0.517052 0.968735 1.24217 -0.962221 1.97072 -1.23795 0.215643 0.688001 
-0.184797 0.105968 -0.631431 -3.85102 8.19503 1.72711 -2.87968 4.80974 -1.87944 
-0.961564 1.75271 -1.256 0.0115974 0.367436 -0.0105942 0.95891 -1.30584 2.83668 
-0.0229584 0.752228 0.982926 -0.981018 -0.317357 -0.236252 2.41275 -1.84631 2.21891 
-0.237949 -0.22832 1.34929 -1.18872 1.49396 -1.9224 -0.108487 0.238874 -0.229328 
0.522054 -0.368848 2.91062 -0.731301 0.505871 1.08078 -0.452335 0.403149 -0.561123 
-0.276254 0.2693 -0.0911481 1.56867 -0.124749 1.49007 -0.404432 0.326085 2.58349 
-0.111208 0.0758612 2.48055 0.985756 -1.62759 1.35478 0.829497 -1.32719 1.01155 
0.102091 -0.620586 1.22971 -0.194728 3.41636 0.0312828 0.102981 0.444379 0.868631 
-4.20149 0.780139 -0.645226 -2.80624 2.74557 -1.10643 -4.37413 2.39912 -1.85637 
1.17184 3.70516 -0.0831053 0.0445708 -0.207226 -0.329034 1.07843 -0.0932379 3.47441 
0.178162 0.0913891 -0.0434586 -0.671365 0.564177 -2.86222 0.704648 -0.302169 1.25229 
-4.65004 4.94768 -1.79774 3.19534 -2.56115 3.60232 1.91466 -0.432266 3.7228 
0.870513 -0.401138 3.12541 -3.28384 2.14318 -1.47066 0.829747 -0.569804 1.92915 
0.824206 0.0104365 0.207166 0.806287 0.201872 3.30167 0.137837 -0.301865 -0.171962 
2.52502 -0.885871 3.6056 0.868082 0.754533 1.4158 0.0661544 -0.603758 0.615577 
0.893984 -2.80144 3.50117 0.95577 0.295096 1.42959 -0.998374 2.00724 -2.56012 
0.764114 -1.6766 -1.02396 -0.708775 0.125526 -1.6955 1.95393 -1.43666 3.35817 
1.60301 -1.12647 1.14824 2.54761 -0.871926 3.57273 -3.18498 1.23541 -0.460271 
0.408122 0.429026 2.09502 0.406954 0.109839 0.815831 0.571007 -1.24954 -0.623296 
0.571363 -0.673285 0.874014 2.3024 -2.42187 1.50414 0.134492 -0.909813 0.376562 
-0.677299 1.06917 -0.751224 -2.86245 3.18088 -2.38364 1.82912 -0.991851 1.49877 
-0.47521 -1.51128 2.49588 2.11072 -0.931389 1.86119 -1.22336 1.3144 -1.51373 
0.0784599 -0.0621272 0.22125 -0.171696 0.563953 0.55047 -0.880445 1.12798 -1.2124 
-0.00105945 0.0405521 0.171164 -5.6533 5.02014 1.67618 1.82787 -0.383458 4.3445 
0.18766 -0.30046 0.243078 -0.836845 1.23585 1.84203 0.813491 -0.613916 2.98834 
-0.393556 0.575242 1.4472 -6.8112 3.20216 0.155703 -1.13608 1.53433 -3.61958 
3.0452 -1.59931 3.74332 0.377255 -0.383799 0.526585 -1.50203 0.757399 -1.67296 
0.394077 -1.86771 0.650529 1.03804 -1.55214 1.04496 -0.953825 3.13624 -2.14479 
0.195427 0.350299 0.615466 -0.828171 -0.00831794 -1.70913 1.73386 -2.10645 4.04253 
-7.44413 3.72315 -0.181864 -2.12136 3.24454 -1.10038 1.53639 -2.79204 3.0662 
1.23886 -1.88824 -0.922543 -0.192323 -0.671178 0.984365 0.241803 1.21161 1.65989 
-1.12283 2.83002 0.360517 0.93426 -0.0548385 2.39744 1.8094 0.172824 3.43363 
-3.01504 2.61298 -2.86887 1.92825 -0.557853 1.73774 1.14207 0.402863 2.93795 
-1.03577 0.170279 3.28293 -0.0925004 0.10485 -0.301375 -7.00661 2.53735 4.47147 
-0.482207 -0.692304 2.2235 -0.194505 0.338605 0.547146 -0.768177 0.887359 -0.710527 
-3.23865 0.0504722 -0.970583 -0.666547 0.206862 1.37149 -0.301603 1.14207 0.00201271 
0.100192 -0.592193 1.25369 -0.657104 2.18516 3.48899 1.11029 -0.382601 2.57355 
1.87094 -1.2064 1.31045 -3.05339 4.28517 -0.739303 0.306198 -0.465926 0.124488 
0.978564 1.02216 1.0477 -4.78164 0.308081 1.05692 -5.34832 2.74634 -1.2259 
1.46782 1.35827 1.63104 0.200703 -0.617528 -0.445511 -0.0975835 0.701779 1.5591 
0.248084 -1.06241 3.10482 0.313533 0.078845 3.14949 -1.50685 1.67387 -1.81914 
-1.52688 -1.04947 0.578041 0.890535 -0.495168 2.98156 -0.421641 0.401286 0.562106 
-1.28688 0.964015 1.39311 0.283142 -0.285619 0.763206 -0.863444 1.6433 -0.454069 
0.0982904 -0.644052 1.31521 0.113188 0.176886 0.219192 3.31786 -2.40569 3.79877 
0.10445 0.0588787 1.68665 -0.819392 0.766295 -2.8173 0.880934 -0.782012 2.33572 
0.982101 -0.597846 2.24203 -0.825153 2.24153 0.238567 -0.926931 -2.61134 3.30186 
1.14147 0.523823 4.02328 1.02181 -1.36137 1.12442 -0.501827 -0.57775 4.77794 
-0.604678 0.25546 -0.454607 -0.138499 2.42702 0.497933 0.403258 1.48168 1.10819 
-0.226281 3.68475 0.200778 -6.29109 1.94687 3.04108 0.923733 -1.42838 -2.15848 
1.17389 -0.149311 2.32246 0.123378 -0.410864 0.355256 -0.0187637 0.0487414 1.43231 
-0.624908 0.317008 -1.81661 -1.12954 1.33915 0.621211 -1.37199 0.345619 3.13088 
0.344331 0.0108361 0.653783 1.36042 -3.23335 3.16345 0.399051 0.631289 3.22535 
-0.79438 -0.310646 1.70273 -0.237822 -0.20819 1.37109 2.41279 -1.8146 3.40263 
-0.0766043 -0.158564 1.63362 -0.477988 1.12382 -1.0022 2.68421 -2.69469 2.39408 
-1.94819 2.26577 -2.88749 -0.760437 -0.54072 2.31231 -0.649877 -0.6926 2.67455 
0.0865356 -0.506003 0.941193 -0.439469 1.99238 0.43787 -4.2988 7.11152 0.0729728 
1.73658 -0.306062 0.657294 -2.16959 -0.557278 3.68484 0.24847 0.353616 0.860144 
0.335514 0.379825 1.06783 0.763482 0.524476 2.89542 -0.683043 -1.93156 3.19124 
0.417141 0.00231803 0.985662 -0.587295 1.02538 -1.69152 -4.50439 4.74297 -1.874 
-1.36331 -1.47926 2.81161 1.98937 -0.284531 3.17028 0.490513 0.0572103 1.76457 
-4.99451 1.91692 -1.30046 -0.145876 1.07654 -1.15436 2.45294 -0.537005 0.548351 
-1.79167 4.95514 0.418607 0.906517 -0.683194 3.39041 0.0425745 -3.16639 3.64708 
-1.93526 2.2399 -0.853926 -0.587778 -1.98197 3.16356 -0.445358 0.394694 0.535494 
-2.40273 3.12729 -1.69121 0.74424 -0.643822 1.88041 -1.60937 1.9119 -2.18261 
-7.02223 3.55753 3.37504 0.217866 -0.12377 2.96166 1.04818 -1.52777 1.48735 
-3.79196 5.02108 0.559011 -0.706342 -2.00403 3.82272 -1.34905 1.13828 1.74876 
1.02482 1.39052 1.20863 -0.259727 0.0377106 1.60121 0.0871573 -0.0552216 4.41461 
2.83767 1.57133 0.689726 -2.45896 1.71485 -1.62799 0.467006 -0.6712 2.22549 
-2.45892 2.00212 -2.64079 0.197255 0.375431 0.789677 0.225364 0.646818 1.05636 
1.74649 -0.689882 3.40796 2.11772 -0.453828 2.08736 -6.04406 2.29567 0.766736 
0.994855 -1.56992 3.07691 0.890984 -0.269278 2.47545 0.12474 -0.159878 0.162425 
-6.47998 5.31609 3.4832 -0.538615 1.21049 2.49034 0.842818 -0.509931 0.919888 
-0.0610185 1.03243 0.0298894 0.839758 -0.602896 2.66681 0.487437 -3.64319 3.45796 
0.381531 -0.427825 2.19063 0.00697909 0.486323 0.0970912 -0.783529 1.42594 1.89064 
1.0907 -0.910755 2.08448 0.188695 0.0712982 0.354521 -0.19074 0.515884 0.479189 
0.872001 -0.294919 3.212 0.71874 -2.44536 3.45177 -0.332149 -0.26571 -0.327747 
-0.10073 -0.0872481 0.93613 -0.332237 -0.447322 2.80177 1.0209 -0.38331 2.654 
0.479961 0.380102 3.24751 1.13309 -0.322383 3.78872 1.11483 -0.461995 3.90746 
1.88292 -2.94645 0.805121 -1.3038 3.34598 -1.61727 0.285423 0.546352 1.20604 
2.32168 -2.12715 3.85926 -0.628859 -0.507357 0.333578 0.40465 -1.48285 2.0547 
-0.398087 0.638812 -0.304829 0.720519 -0.902237 1.66259 2.07842 -2.14034 3.66104 
2.04634 -2.72835 0.386321 2.81092 -2.69112 2.17183 -0.214432 0.0159599 -0.673393 
-2.98231 2.56466 -0.229726 -0.753575 -2.27476 3.45634 1.55429 0.13213 2.24029 
1.22365 -1.17994 1.66754 0.83074 -1.13619 0.693402 -1.06852 0.154704 0.497835 
-1.90266 -1.11489 2.65196 -0.109104 -0.626324 0.960114 -1.3279 1.40972 -1.83592 
-5.7749 6.31313 -0.547045 -0.392222 0.743454 -0.270972 0.818118 -0.511694 1.9483 
-0.394412 1.25076 -0.456461 1.59528 1.96991 1.06264 0.582631 -0.463854 -0.249276 
-0.16008 0.269249 0.0120598 -0.875359 1.09825 -1.166 2.41793 -1.22073 3.31034 
1.04141 0.190336 2.16551 -0.502616 2.24371 0.167564 -0.206429 1.0335 -1.07631 
-0.0440225 -0.835076 -0.819142 0.871929 -1.09323 1.67099 -0.15757 -0.119233 -0.690683 
-0.975163 1.54848 -1.90226 0.290238 0.277027 0.710261 0.526249 -0.451031 3.07182 
-0.391291 1.54741 0.846369 -0.880415 -0.659101 2.165 -2.06436 -0.373463 -0.629088 
-2.82495 1.66495 -1.23917 -0.422217 0.630862 -1.72561 0.922236 0.793071 0.945121 
3.276 -1.73571 3.20612 -0.0287178 0.0376209 0.314901 -0.181202 0.565031 0.682595 
0.777588 -0.128184 3.12718 -4.52647 6.3072 -1.46884 0.683056 -0.452382 2.40927 
2.13274 -2.06296 1.41845 1.8009 -1.42723 2.75293 1.0083 0.0122234 1.77529 
0.962813 -1.67006 -1.42333 0.793479 -0.584956 1.98812 2.58644 -0.0798731 -2.40382 
0.817538 4.63773 -1.17926 -3.25886 2.72874 -2.77221 0.0219644 0.269985 0.338024 
0.194701 0.331656 1.34237 -0.117529 -2.2715 3.19129 -0.281287 -1.15055 3.22224 
-0.115774 0.735577 1.36429 1.62914 -1.14892 0.446611 1.99079 -2.03328 1.45279 
0.785519 -0.40218 3.85013 -0.236129 0.162838 4.20157 0.777551 -0.0383645 1.72829 
0.0272076 0.118948 0.711075 0.3428 1.34591 0.124203 -0.835769 1.47241 -2.31083 
0.325114 0.488987 1.41284 -0.736557 1.25616 -1.62205 0.37122 -0.417212 1.05219 
0.720546 -0.600387 2.08883 1.14641 -0.22991 3.77319 1.53406 -3.24822 3.61588 
-3.00041 2.9109 -2.71086 -0.944178 3.59749 0.536658 1.49039 0.175623 4.25968 
0.379394 -0.238381 1.12372 -1.32261 1.59858 -3.18054 -0.64277 -1.06666 -1.31836 
-1.47011 1.12657 -1.16813 -0.317987 -0.91008 3.27218 2.72136 -1.96935 1.85859 
-3.18091 5.32103 -1.54127 -0.105958 0.320074 0.351308 0.21628 -0.696703 2.10367 
-0.68531 -2.40611 3.56752 -0.146277 -0.521495 1.18776 0.00567302 0.406703 0.982214 
-0.189319 0.396411 0.853588 -0.500174 1.25239 -1.22957 0.671824 -0.858143 1.47273 
-0.353138 0.485174 0.613069 0.369387 0.118559 1.08274 -0.107995 0.247182 1.02517 
1.19446 -1.02435 1.72746 0.510044 -0.675454 1.36714 -2.78228 5.18722 -0.539509 
0.323792 0.0319699 1.16672 0.985664 0.331417 1.03293 0.362298 0.164466 1.51142 
1.14115 -0.26583 3.22633 1.16019 1.35764 0.756744 1.05295 -1.00963 2.17657 
0.24096 0.446992 1.02768 -2.87468 3.10399 -2.11369 1.01149 -1.20738 1.72845 
3.39736 -1.81813 2.61095 -5.65665 7.03563 3.5491 1.58418 0.0661602 2.54756 
-3.37524 3.46205 -1.81241 0.814861 -0.201877 3.39539 -0.754183 1.38747 1.06757 
0.226513 -0.283296 1.14642 1.39045 -1.32534 1.60705 0.768584 -0.344321 3.16874 
0.0441339 0.223112 -0.608725 0.883438 -0.903303 1.64179 0.0234735 -1.00399 -1.7039 
0.721393 0.300115 3.20652 -1.71883 4.28774 -0.934986 -0.0697331 0.37565 0.930309 
-4.49858 -1.01113 2.31566 1.95438 -0.225801 3.43137 -0.103701 0.280101 3.05033 
0.20247 0.361227 0.633914 0.88952 -0.645828 2.29085 0.359265 -0.984184 3.03958 
-2.11668 2.73039 -1.9294 -1.2304 0.217136 0.687372 -1.15374 1.12248 -3.2412 
1.1379 -0.827862 0.694453 1.1222 -0.286434 3.79194 1.44468 0.151539 0.68479 
1.95788 2.08803 1.56094 -4.82005 5.23675 -2.5896 0.355074 0.942924 2.78073 
0.6046 0.282712 2.06588 0.947164 -1.68568 3.52252 -1.06993 0.33807 0.786907 
2.19164 -2.43583 -0.438286 0.725861 -0.57949 -0.104399 -0.508304 0.949274 -1.12421 
0.0185377 -0.221233 -0.0104887 1.15998 -1.15244 2.27669 -3.93197 5.42391 -1.43872 
1.14759 -1.10545 4.35695 -0.383966 0.202864 -1.16149 0.706672 -0.50078 -0.11147 
-0.322367 0.249442 -0.741832 2.9956 -1.30863 2.8167 1.8043 -0.543107 4.05516 
-3.20849 1.06011 -3.38733 1.34789 -0.424278 -0.940928 -0.908568 0.821012 -1.66698 
1.31002 -0.365499 2.97908 -0.330645 0.402135 -0.738489 0.858262 0.407816 -0.240505 
-0.105012 0.475636 -0.578916 0.283765 1.01038 -0.94164 2.43839 -1.06631 0.952116 
0.0734989 0.59772 0.863128 0.268683 0.307327 0.883223 -0.393063 -0.163571 -0.574745 
0.862634 -0.71681 1.45824 0.558718 -3.47823 3.41848 -1.13328 -2.6074 4.45316 
-0.72738 0.393976 -0.175874 1.1751 -1.95809 4.00281 -0.111608 0.784966 0.779582 
1.07465 -0.0994129 3.599 0.570072 0.43918 1.44903 -0.783621 0.714639 -1.97457 
0.707253 -0.0738557 3.50379 0.202913 -0.72042 1.57453 0.164761 1.90432 -2.68395 
-0.269065 2.48367 0.980931 -0.735221 2.24004 -1.78011 0.300599 0.598278 0.800337 
2.07108 -0.433157 1.51503 0.255813 -0.342266 0.208399 0.509033 -0.682696 1.29405 
1.74946 -0.106844 3.61498 3.55056 -2.0948 3.76098 0.260045 -2.36701 3.64595 
-0.72548 0.31126 0.0821614 -7.01382 5.74522 2.38854 -4.45383 6.58455 1.84214 
-1.5998 1.80117 -1.84421 0.266381 -0.253954 0.510885 -3.97274 7.4833 1.35633 
0.744219 -0.613435 1.47419 -6.38781 4.61849 -1.19624 0.674754 -0.517885 2.1451 
0.905836 0.240328 3.42904 -0.592468 -0.498752 1.12311 -0.285627 -1.18958 3.2446 
-3.39372 2.18415 -2.34417 2.95675 -2.13212 3.05082 0.495854 0.247934 0.130504 
1.95183 -0.176824 3.36132 -3.13431 3.70988 -2.34959 -7.61191 5.08532 2.25605 
-1.52956 1.15137 -1.12042 0.470933 1.60224 1.12163 -0.578921 0.454937 -2.64747 
-0.665812 0.189928 0.211366 1.68716 0.243879 1.15496 2.80833 -1.99404 1.95951 
-1.02268 0.97179 0.639365 1.98048 -2.73943 3.12649 1.04394 -0.850517 1.54067 
0.113809 -0.756412 0.388153 2.3355 -1.13072 3.41067 0.300387 -0.297999 0.826117 
2.60047 -1.13391 3.75656 -0.755556 4.48402 -1.41753 1.3114 -1.06049 2.45939 
1.0039 -0.245191 3.22486 -4.42384 6.54742 1.85854 0.344332 -1.86689 3.14585 
-0.0705681 0.127854 -0.578873 -1.62619 2.01146 -1.0181 -0.22096 1.10897 -0.735102 
0.393829 0.352648 2.33868 -0.306939 0.210784 -0.366077 -6.70991 6.00219 2.24682 
1.42012 -0.724355 2.91302 -3.01447 5.5927 0.19874 0.428928 0.834394 -0.187421 
-0.598743 1.21516 1.11398 2.16669 0.961792 3.9404 0.560412 -0.590589 3.14432 
1.19915 -2.80564 3.87232 0.740155 0.225219 3.13337 -0.807664 1.83851 -0.89285 
-0.769883 1.65691 -1.09125 -0.250577 -0.742427 2.31967 -6.65251 2.1718 1.52989 
2.41859 -0.50767 3.10697 0.033258 -0.00551348 0.664737 -1.23793 -0.393421 -0.439203 
-0.858747 2.04609 -1.98944 2.21044 -0.923242 1.88909 -1.51554 6.33956 -0.476622 
-1.38491 3.35279 -1.57299 0.29902 0.615611 1.60037 2.10842 -2.60898 3.10382 
-0.193909 1.60404 0.624923 -1.59706 -0.800313 2.54307 -0.961561 1.45949 -1.47249 
0.740745 -1.16953 2.12273 -0.0153847 0.889273 -1.12994 -0.0505386 -0.292905 -0.116068 
-1.07181 1.58848 -2.38075 -0.321711 -0.201229 -1.68423 2.08314 -1.36417 1.08881 
1.01117 -0.360317 3.67496 -0.605385 2.11144 0.741224 2.3339 -1.05702 3.79565 
-1.13979 0.118402 2.42213 1.1052 -1.30255 1.58506 0.372384 -0.451343 0.836823 
1.66278 -0.862042 2.93606 -3.33399 3.34289 -0.36261 -0.0206251 -0.195223 -0.575995 
-0.201128 1.50078 0.29281 -0.788732 -0.690452 1.12993 -2.39618 2.50789 -2.81117 
-5.17871 5.91409 1.94862 1.8419 -1.66922 3.8265 0.553462 -1.09578 2.46198 
-1.57062 -0.905483 0.776447 -1.67083 2.33922 -1.97495 0.357062 0.0348026 0.265917 
-1.0665 1.26351 -1.48514 -3.42972 4.93807 -1.97217 2.23877 -0.903158 3.41449 
0.199244 1.45718 1.89231 0.589027 -0.315848 3.02306 -0.654804 0.941399 -0.496565 
-0.0761589 0.374104 -0.429337 -0.329537 0.438109 -0.104681 0.908694 0.0258737 3.01336 
0.043096 -1.54606 3.27917 0.255101 -0.764838 2.32856 0.129608 1.83721 0.384629 
1.6528 -0.52666 2.49396 2.09073 -1.91705 1.81076 -1.63034 2.49484 -2.45497 
2.44057 -0.711247 3.42543 0.605433 -0.156827 0.957966 1.22391 0.081854 2.97716 
-0.131356 1.15524 1.23835 -2.06469 3.34873 -1.46975 1.00625 -0.299305 3.1575 
0.264921 0.332458 0.891464 -0.591092 1.10657 -2.17869 1.04743 -1.55905 1.45834 
0.556288 0.218401 0.535525 -0.775965 2.04314 -1.22956 -1.16762 0.739416 -1.82356 
-3.31599 2.22554 -2.33963 0.355747 0.42421 0.120407 -0.352303 -0.171605 -1.14587 
0.357216 -3.54003 3.46547 -0.352767 0.34319 4.56705 0.843936 0.564608 4.11911 
-2.04894 1.91826 -2.54167 -2.52448 5.1722 -0.482407 0.458044 -1.01937 -0.427437 
2.16581 -2.58292 4.41179 0.483576 0.600405 1.51672 0.982252 -0.0556416 3.10071 
-1.2153 -0.40933 0.907483 -0.213019 0.62461 1.10429 -0.0911433 -0.554959 0.436686 
-0.672895 -0.463399 -2.15716 -0.0171579 0.0880742 0.105868 0.39961 0.364279 0.13764 
-2.57938 -1.03671 1.19693 -2.45883 3.28278 -1.82098 0.886584 -0.768923 2.09697 
-1.1671 -1.66231 3.4599 2.23314 -1.79758 1.21187 -0.612181 1.096 -0.0463476 
-3.20298 2.64688 0.0951471 -2.39409 2.68157 -1.79544 2.96023 -2.28097 1.95535 
-0.682102 1.74503 -0.991499 -0.192192 0.275932 -0.533973 -0.249582 -2.85092 4.27825 
-0.323246 0.949165 -0.0897545 0.17024 -1.50141 3.12017 -0.000554444 -0.207194 -0.941242 
1.74782 1.54733 3.94959 1.615 -0.295028 4.44943 -0.230107 0.27836 1.02229 
-0.169406 -0.297684 1.60154 -0.101457 -0.101537 0.973948 -0.111101 2.211 0.199678 
0.15511 -0.601477 1.06659 3.77534 -2.5339 3.51282 1.05986 -1.54535 1.38793 
0.138004 -2.76639 -2.35277 -0.0947235 1.30215 0.802742 -0.718684 1.93692 -1.69412 
0.709657 -1.64521 1.70498 -1.48242 -1.53908 3.53671 1.09516 -0.59131 2.06059 
-1.05995 0.991139 -3.72733 1.84685 -1.11248 2.11432 1.93339 -0.646495 3.77806 
-1.11151 -0.487961 -1.75807 1.04607 0.0525593 3.69782 0.302654 -0.153983 1.12956 
0.296217 0.0393818 1.33265 1.99622 -1.77752 2.24949 1.44302 0.401933 0.917698 
-0.33237 0.482848 -1.20809 -3.63317 5.49262 -1.76936 0.88269 -2.69524 3.50895 
-0.425843 0.999073 0.694244 0.831481 -0.588291 2.63795 2.41463 -0.738498 3.42906 
0.544631 0.0670375 2.95643 -0.92209 1.10603 -0.927031 1.72384 -0.76799 2.46909 
-0.569185 1.68658 -2.26155 2.10465 -1.85065 0.876014 0.794851 0.124848 3.12262 
0.238313 0.379741 0.865558 2.27692 -2.70485 4.49991 -0.66976 2.08287 -0.865189 
-0.120058 0.266868 0.978733 1.30974 -0.0493115 1.48826 -1.08865 0.358286 -1.58971 
1.1715 -3.12499 2.8019 0.40513 0.106081 1.98247 -0.861391 1.63097 -1.79704 
-0.399256 -0.601661 3.71801 -0.181228 0.269165 -0.0211619 -2.70204 5.13966 -0.684094 
0.988918 1.13613 1.0078 -6.6239 4.71806 3.59227 0.935347 0.200423 3.05166 
-0.0115883 0.538542 2.1563 0.0559556 -3.66462 2.44329 -4.59692 4.74818 -3.19541 
0.0955586 -0.503188 -0.303851 2.16419 -2.93422 3.23072 1.15026 -0.202083 3.15622 
-0.058174 0.664121 0.317632 1.16866 1.57063 3.83954 -0.00142979 -0.330701 0.0174712 
0.253532 0.118309 0.976607 0.419207 -0.144716 3.22761 -0.426141 1.37133 -1.51125 
-0.0850394 0.629906 0.750981 -4.9482 5.29452 -2.92501 -1.05274 2.13782 -2.02723 
0.78523 -0.788203 -0.0261517 1.59587 -1.20047 4.36817 3.83455 -2.22116 2.58286 
1.00254 -1.58547 0.988429 1.59332 0.118519 2.25319 -3.86662 2.93861 -2.80697 
-1.04407 1.98128 -2.66887 -0.305804 -0.0423826 0.878494 0.7048 -2.44263 3.14543 
-6.39259 6.21343 2.0392 1.9047 -1.82201 -1.05304 1.62613 -0.445682 4.55062 
0.0287936 0.110438 0.74691 1.0705 0.234249 2.0899 2.69989 -0.849915 3.18071 
0.711159 -0.263033 1.07234 2.25264 -1.38375 1.09123 -0.242031 0.194323 -1.38626 
0.960792 -0.362937 1.31227 1.11827 -0.335254 3.80512 -6.56779 4.5348 4.45709 
0.853533 -0.76431 1.92598 0.406004 -0.135205 1.37149 -4.26422 4.5264 -3.29416 
1.52861 -0.186904 4.4264 -0.0964394 0.206778 -0.313673 1.54041 -1.08859 1.27926 
1.53957 -0.147952 4.29348 -0.0793643 0.880287 0.810643 1.43742 0.191352 1.22957 
2.1663 -1.06403 3.79487 -0.0347506 -0.176444 -0.0825664 -0.100644 0.254279 0.606057 
-0.389741 0.784906 -1.4846 -5.92841 0.24995 1.19097 0.324885 -0.168324 0.658674 
0.725266 -1.2088 1.68203 -0.212233 -2.19902 3.24674 2.38788 -0.962143 3.5106 
0.0278201 0.203541 0.618127 -0.574843 0.893313 -1.66932 -2.94135 4.90665 -0.56454 
2.65351 -0.984392 3.22738 -0.150597 -0.0765496 -0.683961 0.256428 0.334561 0.875295 
0.657318 -0.636896 2.53459 1.66142 -1.75252 1.5034 -4.90843 6.02739 5.18263 
0.726786 -1.20996 1.34956 1.41087 -2.12003 4.05853 -1.16703 -1.9186 3.60096 
0.531581 -0.525329 2.87758 1.30267 0.00117317 2.51095 0.662367 0.0289886 3.13263 
0.733644 -0.454407 3.13402 -1.65421 1.30239 -1.26512 0.219437 1.03061 -0.332846 
0.0459088 0.000503907 0.38943 -0.328615 0.699462 -1.76422 0.620685 -0.164989 3.03096 
-0.633789 2.11773 1.33364 0.643504 -1.30627 2.01076 2.33135 0.324836 3.59869 
0.941972 -1.33196 1.09101 1.45303 -0.426491 3.9153 -4.50073 2.76468 -2.33352 
-0.946278 1.48856 -2.45535 -4.96595 8.04087 2.70173 0.369004 0.989763 -1.74343 
-0.415487 -2.19061 3.47124 -2.20735 1.61698 -1.64257 -0.184722 0.807549 -1.32919 
-0.467229 -0.345903 2.56352 1.44289 -0.201406 1.75508 -0.764966 -0.273019 1.65646 
1.72629 -0.573633 3.33893 1.19581 0.205708 1.43467 1.06356 -0.269966 3.0982 
-0.103521 1.01453 3.01106 -3.63774 5.67617 -1.68934 1.57829 -2.21632 3.56444 
1.04915 -1.32561 1.58511 -0.375144 0.676468 -0.281182 3.0264 -2.63766 3.53029 